ala HF/STO-3G                                                           
SP        RHF                                                         STO-3G              
Number of atoms                            I               13
Info1-9                                    I   N=           9
          21          21           0           0           0         110
           1           1           2
Full Title                                 C   N=           2
ala HF/STO-3G           
Route                                      C   N=           1
#p HF/STO-3G
Charge                                     I                0
Multiplicity                               I                1
Number of electrons                        I               48
Number of alpha electrons                  I               24
Number of beta electrons                   I               24
Number of basis functions                  I               37
Number of independent functions            I               37
Number of point charges in /Mol/           I                0
Number of translation vectors              I                0
Atomic numbers                             I   N=          13
           7           6           6           8           1           1
           1           1           6           1           1           1
           8
Nuclear charges                            R   N=          13
  7.00000000E+00  6.00000000E+00  6.00000000E+00  8.00000000E+00  1.00000000E+00
  1.00000000E+00  1.00000000E+00  1.00000000E+00  6.00000000E+00  1.00000000E+00
  1.00000000E+00  1.00000000E+00  8.00000000E+00
Current cartesian coordinates              R   N=          39
 -2.41697176E+00 -2.14433621E+00 -4.42130213E-01 -1.17642218E+00  3.28741704E-01
 -8.07183275E-01  1.66494528E+00  8.33427471E-02 -1.63074028E-01  2.23886909E+00
 -2.07902975E+00  1.04956862E+00 -4.18962150E+00 -1.95179446E+00  2.83803701E-01
 -2.56778162E+00 -3.11975614E+00 -2.09536340E+00  5.87385083E-01 -2.99438309E+00
  1.10654764E+00 -1.26926830E+00  9.69580851E-01 -2.78468129E+00 -2.35881384E+00
  2.34700642E+00  8.91953964E-01 -4.32512108E+00  2.71519338E+00  3.36380296E-01
 -1.29343443E+00  4.11574242E+00  7.42066707E-01 -2.33175570E+00  1.74136296E+00
  2.87910090E+00  3.20239895E+00  1.70151254E+00 -6.62459004E-01
Number of symbols in /Mol/                 I                0
Force Field                                I                0
Atom Types                                 C   N=          13
                                                            
                                                            
                                    
Int Atom Types                             I   N=          13
           0           0           0           0           0           0
           0           0           0           0           0           0
           0
MM charges                                 R   N=          13
  0.00000000E+00  0.00000000E+00  0.00000000E+00  0.00000000E+00  0.00000000E+00
  0.00000000E+00  0.00000000E+00  0.00000000E+00  0.00000000E+00  0.00000000E+00
  0.00000000E+00  0.00000000E+00  0.00000000E+00
Integer atomic weights                     I   N=          13
          14          12          12          16           1           1
           1           1          12           1           1           1
          16
Real atomic weights                        R   N=          13
  1.40030740E+01  1.20000000E+01  1.20000000E+01  1.59949146E+01  1.00782504E+00
  1.00782504E+00  1.00782504E+00  1.00782504E+00  1.20000000E+01  1.00782504E+00
  1.00782504E+00  1.00782504E+00  1.59949146E+01
Atom fragment info                         I   N=          13
           0           0           0           0           0           0
           0           0           0           0           0           0
           0
Atom residue num                           I   N=          13
           0           0           0           0           0           0
           0           0           0           0           0           0
           0
Nuclear spins                              I   N=          13
           2           0           0           0           1           1
           1           1           0           1           1           1
           0
Nuclear ZEff                               R   N=          13
 -4.55000000E+00 -3.60000000E+00 -3.60000000E+00 -5.60000000E+00 -1.00000000E+00
 -1.00000000E+00 -1.00000000E+00 -1.00000000E+00 -3.60000000E+00 -1.00000000E+00
 -1.00000000E+00 -1.00000000E+00 -5.60000000E+00
Nuclear ZNuc                               R   N=          13
  7.00000000E+00  6.00000000E+00  6.00000000E+00  8.00000000E+00  1.00000000E+00
  1.00000000E+00  1.00000000E+00  1.00000000E+00  6.00000000E+00  1.00000000E+00
  1.00000000E+00  1.00000000E+00  8.00000000E+00
Nuclear QMom                               R   N=          13
  2.04400000E+00  0.00000000E+00  0.00000000E+00  0.00000000E+00  0.00000000E+00
  0.00000000E+00  0.00000000E+00  0.00000000E+00  0.00000000E+00  0.00000000E+00
  0.00000000E+00  0.00000000E+00  0.00000000E+00
Nuclear GFac                               R   N=          13
  4.03761000E-01  0.00000000E+00  0.00000000E+00  0.00000000E+00  2.79284600E+00
  2.79284600E+00  2.79284600E+00  2.79284600E+00  0.00000000E+00  2.79284600E+00
  2.79284600E+00  2.79284600E+00  0.00000000E+00
MicOpt                                     I   N=          13
          -1          -1          -1          -1          -1          -1
          -1          -1          -1          -1          -1          -1
          -1
Number of residues                         I                0
Number of secondary structures             I                0
SymInf integers                            I   N=          26
           1           1           1           1           1           0
           0           0           0           0           0           0
           0           0           0           0           0           0
           0           0           0           0           0           0
           0           0
RotTr to input orientation                 R   N=          12
  9.04873791E-01  2.14989978E-01  3.67399962E-01 -2.59721642E-01 -4.04989239E-01
  8.76657507E-01  3.37265609E-01 -8.88686123E-01 -3.10626598E-01  2.31408649E+00
 -7.59084284E-01  4.62792609E+00
Number of contracted shells                I               19
Number of primitive shells                 I               57
Pure/Cartesian d shells                    I                0
Pure/Cartesian f shells                    I                0
Highest angular momentum                   I                1
Largest degree of contraction              I                3
Shell types                                I   N=          19
           0          -1           0          -1           0          -1
           0          -1           0           0           0           0
           0          -1           0           0           0           0
          -1
Number of primitives per shell             I   N=          19
           3           3           3           3           3           3
           3           3           3           3           3           3
           3           3           3           3           3           3
           3
Shell to atom map                          I   N=          19
           1           1           2           2           3           3
           4           4           5           6           7           8
           9           9          10          11          12          13
          13
Primitive exponents                        R   N=          57
  9.91061690E+01  1.80523124E+01  4.88566024E+00  3.78045588E+00  8.78496645E-01
  2.85714374E-01  7.16168373E+01  1.30450963E+01  3.53051216E+00  2.94124936E+00
  6.83483096E-01  2.22289916E-01  7.16168373E+01  1.30450963E+01  3.53051216E+00
  2.94124936E+00  6.83483096E-01  2.22289916E-01  1.30709321E+02  2.38088661E+01
  6.44360831E+00  5.03315132E+00  1.16959612E+00  3.80388960E-01  3.42525091E+00
  6.23913730E-01  1.68855404E-01  3.42525091E+00  6.23913730E-01  1.68855404E-01
  3.42525091E+00  6.23913730E-01  1.68855404E-01  3.42525091E+00  6.23913730E-01
  1.68855404E-01  7.16168373E+01  1.30450963E+01  3.53051216E+00  2.94124936E+00
  6.83483096E-01  2.22289916E-01  3.42525091E+00  6.23913730E-01  1.68855404E-01
  3.42525091E+00  6.23913730E-01  1.68855404E-01  3.42525091E+00  6.23913730E-01
  1.68855404E-01  1.30709321E+02  2.38088661E+01  6.44360831E+00  5.03315132E+00
  1.16959612E+00  3.80388960E-01
Contraction coefficients                   R   N=          57
  1.54328967E-01  5.35328142E-01  4.44634542E-01 -9.99672292E-02  3.99512826E-01
  7.00115469E-01  1.54328967E-01  5.35328142E-01  4.44634542E-01 -9.99672292E-02
  3.99512826E-01  7.00115469E-01  1.54328967E-01  5.35328142E-01  4.44634542E-01
 -9.99672292E-02  3.99512826E-01  7.00115469E-01  1.54328967E-01  5.35328142E-01
  4.44634542E-01 -9.99672292E-02  3.99512826E-01  7.00115469E-01  1.54328967E-01
  5.35328142E-01  4.44634542E-01  1.54328967E-01  5.35328142E-01  4.44634542E-01
  1.54328967E-01  5.35328142E-01  4.44634542E-01  1.54328967E-01  5.35328142E-01
  4.44634542E-01  1.54328967E-01  5.35328142E-01  4.44634542E-01 -9.99672292E-02
  3.99512826E-01  7.00115469E-01  1.54328967E-01  5.35328142E-01  4.44634542E-01
  1.54328967E-01  5.35328142E-01  4.44634542E-01  1.54328967E-01  5.35328142E-01
  4.44634542E-01  1.54328967E-01  5.35328142E-01  4.44634542E-01 -9.99672292E-02
  3.99512826E-01  7.00115469E-01
P(S=P) Contraction coefficients            R   N=          57
  0.00000000E+00  0.00000000E+00  0.00000000E+00  1.55916275E-01  6.07683719E-01
  3.91957393E-01  0.00000000E+00  0.00000000E+00  0.00000000E+00  1.55916275E-01
  6.07683719E-01  3.91957393E-01  0.00000000E+00  0.00000000E+00  0.00000000E+00
  1.55916275E-01  6.07683719E-01  3.91957393E-01  0.00000000E+00  0.00000000E+00
  0.00000000E+00  1.55916275E-01  6.07683719E-01  3.91957393E-01  0.00000000E+00
  0.00000000E+00  0.00000000E+00  0.00000000E+00  0.00000000E+00  0.00000000E+00
  0.00000000E+00  0.00000000E+00  0.00000000E+00  0.00000000E+00  0.00000000E+00
  0.00000000E+00  0.00000000E+00  0.00000000E+00  0.00000000E+00  1.55916275E-01
  6.07683719E-01  3.91957393E-01  0.00000000E+00  0.00000000E+00  0.00000000E+00
  0.00000000E+00  0.00000000E+00  0.00000000E+00  0.00000000E+00  0.00000000E+00
  0.00000000E+00  0.00000000E+00  0.00000000E+00  0.00000000E+00  1.55916275E-01
  6.07683719E-01  3.91957393E-01
Coordinates of each shell                  R   N=          57
 -2.41697176E+00 -2.14433621E+00 -4.42130213E-01 -2.41697176E+00 -2.14433621E+00
 -4.42130213E-01 -1.17642218E+00  3.28741704E-01 -8.07183275E-01 -1.17642218E+00
  3.28741704E-01 -8.07183275E-01  1.66494528E+00  8.33427471E-02 -1.63074028E-01
  1.66494528E+00  8.33427471E-02 -1.63074028E-01  2.23886909E+00 -2.07902975E+00
  1.04956862E+00  2.23886909E+00 -2.07902975E+00  1.04956862E+00 -4.18962150E+00
 -1.95179446E+00  2.83803701E-01 -2.56778162E+00 -3.11975614E+00 -2.09536340E+00
  5.87385083E-01 -2.99438309E+00  1.10654764E+00 -1.26926830E+00  9.69580851E-01
 -2.78468129E+00 -2.35881384E+00  2.34700642E+00  8.91953964E-01 -2.35881384E+00
  2.34700642E+00  8.91953964E-01 -4.32512108E+00  2.71519338E+00  3.36380296E-01
 -1.29343443E+00  4.11574242E+00  7.42066707E-01 -2.33175570E+00  1.74136296E+00
  2.87910090E+00  3.20239895E+00  1.70151254E+00 -6.62459004E-01  3.20239895E+00
  1.70151254E+00 -6.62459004E-01
Num ILSW                                   I              100
ILSW                                       I   N=         100
           0           0           0           0           2           0
           0           0           0           0           0          -1
           5           0           0           0           0           0
           0           0           0           0           0           0
           1           0           0           0           0           0
           0           0      100000           0          -1           0
           0           0           0           0           0           0
           0           0           0           1           0           0
           0 -2000000000           1           0           0           0
           0           0           4          52           0           0
           0           0           0           0           0           0
           0           0           0          13           0           1
           0           0           0           0           0           0
           0           0           0           0           0           0
           0           0           0           0           0           0
           0           0           0           0           0           0
           0           0           0           0
Num RLSW                                   I               52
RLSW                                       R   N=          52
  1.00000000E+00  1.00000000E+00  1.00000000E+00  1.00000000E+00  1.00000000E+00
  0.00000000E+00  0.00000000E+00  1.00000000E+00  0.00000000E+00  0.00000000E+00
  0.00000000E+00  0.00000000E+00  1.00000000E+00  0.00000000E+00  0.00000000E+00
  0.00000000E+00  0.00000000E+00  1.00000000E+00  0.00000000E+00  0.00000000E+00
  0.00000000E+00  0.00000000E+00  1.00000000E+00  0.00000000E+00  0.00000000E+00
  0.00000000E+00  0.00000000E+00  1.00000000E+00  0.00000000E+00  0.00000000E+00
  0.00000000E+00  0.00000000E+00  1.00000000E+00  0.00000000E+00  0.00000000E+00
  0.00000000E+00  0.00000000E+00  0.00000000E+00  1.00000000E+00  1.00000000E+00
  0.00000000E+00  1.00000000E+00  0.00000000E+00  0.00000000E+00  0.00000000E+00
  0.00000000E+00  0.00000000E+00  0.00000000E+00  0.00000000E+00  0.00000000E+00
  0.00000000E+00  0.00000000E+00
MxBond                                     I                4
NBond                                      I   N=          13
           3           4           3           2           1           1
           1           1           4           1           1           1
           1
IBond                                      I   N=          52
           2           5           6           0           1           3
           8           9           2           4          13           0
           3           7           0           0           1           0
           0           0           1           0           0           0
           4           0           0           0           2           0
           0           0           2          10          11          12
           9           0           0           0           9           0
           0           0           9           0           0           0
           3           0           0           0
RBond                                      R   N=          52
  1.00000000E+00  1.00000000E+00  1.00000000E+00  0.00000000E+00  1.00000000E+00
  1.00000000E+00  1.00000000E+00  1.00000000E+00  1.00000000E+00  1.50000000E+00
  2.00000000E+00  0.00000000E+00  1.50000000E+00  1.00000000E+00  0.00000000E+00
  0.00000000E+00  1.00000000E+00  0.00000000E+00  0.00000000E+00  0.00000000E+00
  1.00000000E+00  0.00000000E+00  0.00000000E+00  0.00000000E+00  1.00000000E+00
  0.00000000E+00  0.00000000E+00  0.00000000E+00  1.00000000E+00  0.00000000E+00
  0.00000000E+00  0.00000000E+00  1.00000000E+00  1.00000000E+00  1.00000000E+00
  1.00000000E+00  1.00000000E+00  0.00000000E+00  0.00000000E+00  0.00000000E+00
  1.00000000E+00  0.00000000E+00  0.00000000E+00  0.00000000E+00  1.00000000E+00
  0.00000000E+00  0.00000000E+00  0.00000000E+00  2.00000000E+00  0.00000000E+00
  0.00000000E+00  0.00000000E+00
Virial Ratio                               R      2.008575164772155E+00
SCF Energy                                 R     -3.176958252731511E+02
Total Energy                               R     -3.176958252731511E+02
RMS Density                                R      4.223004857955743E-09
Job Status                                 I                1
Nuclear derivative order                   I                0
External E-field                           R   N=          35
  0.00000000E+00  0.00000000E+00  0.00000000E+00  0.00000000E+00  0.00000000E+00
  0.00000000E+00  0.00000000E+00  0.00000000E+00  0.00000000E+00  0.00000000E+00
  0.00000000E+00  0.00000000E+00  0.00000000E+00  0.00000000E+00  0.00000000E+00
  0.00000000E+00  0.00000000E+00  0.00000000E+00  0.00000000E+00  0.00000000E+00
  0.00000000E+00  0.00000000E+00  0.00000000E+00  0.00000000E+00  0.00000000E+00
  0.00000000E+00  0.00000000E+00  0.00000000E+00  0.00000000E+00  0.00000000E+00
  0.00000000E+00  0.00000000E+00  0.00000000E+00  0.00000000E+00  0.00000000E+00
IOpCl                                      I                0
IROHF                                      I                0
Alpha Orbital Energies                     R   N=          37
 -2.02721426E+01 -2.02315754E+01 -1.53487352E+01 -1.11516206E+01 -1.11044079E+01
 -1.10632711E+01 -1.35834988E+00 -1.26333764E+00 -1.16095505E+00 -9.80595844E-01
 -8.43253976E-01 -6.95786789E-01 -6.56352354E-01 -6.47815465E-01 -5.99567084E-01
 -5.49991481E-01 -5.23726723E-01 -5.15281824E-01 -4.94513467E-01 -4.66874035E-01
 -4.38678988E-01 -3.75518167E-01 -3.23800217E-01 -3.03689658E-01  3.27915376E-01
  5.42775899E-01  5.78715638E-01  6.04703887E-01  6.31392302E-01  6.64882049E-01
  6.78623970E-01  7.14248119E-01  7.28251858E-01  7.35752892E-01  7.68800816E-01
  8.31137373E-01  1.02260670E+00
Alpha MO coefficients                      R   N=        1369
 -5.84951153E-05  4.25294033E-04  4.55575000E-04 -2.58681723E-04  2.92926827E-04
 -3.44245238E-05  3.60909993E-04  1.77471602E-04 -3.95849494E-04  2.32507199E-04
  5.18003247E-04 -4.99070466E-03 -1.14324632E-03  4.10770717E-03 -2.32274585E-03
  9.94092367E-01  2.66501095E-02 -3.65086674E-03  1.77955192E-03 -1.75772793E-03
  6.89207663E-05  8.69420339E-05 -5.74128885E-03  1.33397940E-05 -4.57515468E-06
  1.00089627E-05  2.43733285E-05 -9.30624780E-06 -1.89404309E-05  9.80540011E-06
 -2.93554130E-05  5.66386290E-05  7.55723673E-04  2.08428736E-04  2.82277939E-04
 -3.71249277E-04  2.48477535E-04  3.22029395E-06  1.89312166E-06 -7.37573862E-05
  3.06512190E-05 -1.54324310E-05 -2.07938049E-05  2.27288811E-04  2.27674436E-04
  3.20178794E-04 -1.61731757E-04  5.39844167E-04 -7.45419203E-03 -4.43280994E-03
 -4.65422601E-03  1.42666321E-03 -8.19879037E-04  2.63843329E-04  3.92618535E-04
  2.37588858E-04 -3.87443357E-05 -1.23892769E-05  2.65451901E-06 -9.48858703E-05
 -7.35036092E-05 -1.52968938E-05  7.15045337E-05  9.33716639E-05  1.34936258E-05
  4.13251205E-05  2.44078758E-05 -8.91241710E-05 -8.33729527E-06  9.94220368E-01
  2.63628783E-02 -3.94225554E-03 -4.15148022E-03  1.28519817E-03  9.93356926E-01
  3.16715907E-02 -2.27145340E-03  1.78228734E-03 -2.50701844E-03  4.96481200E-04
 -5.09998524E-03  2.07795507E-03  3.68654234E-03 -4.26075445E-04 -4.38556023E-06
  2.67087645E-04 -1.38746033E-04 -1.38514890E-04  8.15453922E-06 -8.74036619E-05
  6.24525371E-04 -3.66845949E-04 -2.98757176E-04  8.02894297E-05 -6.62424595E-03
 -6.61650757E-03 -1.73545187E-03  3.76258890E-04 -1.07951910E-05  3.03204650E-04
 -3.91474890E-05 -2.65991377E-04 -5.49758110E-05  1.06369348E-04 -5.35762237E-05
 -7.65695020E-07  5.67714965E-06 -1.79269405E-05  2.99015384E-05 -1.91924006E-05
  1.53902368E-05  5.26313673E-06  2.22611660E-04 -2.70077915E-05  5.75851313E-05
  1.85531462E-05 -3.02760507E-03 -5.25451086E-03 -3.84178537E-03  3.13506409E-04
 -8.34685408E-04  9.92706628E-01  3.14861634E-02  1.84608053E-04  2.69348875E-04
  9.33519670E-06  3.28974862E-04 -4.55435327E-03 -1.08014292E-05 -2.27329944E-03
  1.12414197E-03 -6.04596622E-05 -3.30418398E-05 -1.24035119E-03 -1.72669963E-04
 -5.16403526E-04  1.15508182E-04 -3.80691010E-04  9.81955197E-05 -9.75106249E-05
 -1.86286829E-04 -2.49642146E-04 -1.43154220E-04  1.07633131E-04 -5.61541308E-03
  9.26192960E-04  1.08730449E-03 -3.66654896E-04  4.79264842E-04 -5.03212670E-03
 -1.68702841E-03 -3.29499469E-03  4.46839695E-04  9.92022213E-01  3.63454864E-02
  2.19818174E-04  2.23344833E-04 -2.47186226E-05  4.02778692E-03 -5.62103419E-03
  4.12354388E-03 -3.25417962E-04  9.11898095E-04 -3.12801350E-05  4.07409433E-04
 -1.92311905E-04 -2.64840643E-05 -4.53618379E-05 -3.31688744E-04 -3.36417877E-04
 -5.63071285E-04 -6.90567947E-03 -2.99350051E-03 -5.87277843E-03 -1.70371922E-03
  3.02961467E-03  2.50085774E-03  5.58121783E-05  7.24700978E-05  2.31454788E-05
 -1.75532586E-05  1.92796442E-04 -1.98286757E-04  2.47546416E-05 -6.41776341E-05
 -5.87536658E-07  2.95843458E-04 -5.24695284E-05  2.69125302E-05 -2.71058922E-05
  3.99064979E-03 -5.61014778E-03  1.78449275E-03 -2.94485833E-03 -2.51015974E-03
  6.39298496E-04 -6.79851429E-05 -8.30040946E-06 -1.61152420E-04 -1.18137416E-04
 -5.92594190E-06  1.47735453E-05 -2.29691335E-05  4.22687652E-05  2.84786054E-05
 -3.30736229E-04 -5.91688562E-05  2.57051970E-05  2.87131081E-05  9.91961731E-01
  3.75268108E-02 -1.42008127E-05  8.20640814E-05  6.70662083E-05 -6.85893706E-03
 -6.88271115E-03 -6.86015631E-03 -1.92980150E-05  1.28766187E-04 -8.38772368E-05
 -1.22472164E-05  2.51587353E-05 -1.64483437E-02  4.98983193E-02  6.84348730E-03
  8.69079629E-03 -2.29893198E-03 -2.90375510E-02  7.03184324E-02  2.72387474E-02
 -8.40404235E-03  8.94907176E-03 -1.36194608E-01  3.14687248E-01  6.63239499E-02
 -7.35351973E-03  1.78036922E-02 -1.61891934E-01  5.69626625E-01 -7.72843655E-02
  6.30254133E-02 -4.98615071E-02  5.44858364E-03  5.99229617E-03  8.36146623E-02
  8.62564380E-03 -6.65227797E-03  1.53580894E-02  4.06702683E-03 -4.72490933E-03
 -3.35072928E-03  1.55548968E-03  3.19289271E-03  2.47461555E-03 -1.30225813E-01
  4.46096879E-01 -7.71687861E-02 -8.64166239E-02  2.79132892E-02  1.62640527E-02
 -5.15225333E-02 -4.54184396E-03 -4.31456441E-03  1.35401778E-03  2.50777201E-03
 -2.36270334E-03  9.72992138E-03  1.17283282E-02 -2.68225874E-03 -4.16441886E-02
  9.29319538E-02  8.80912601E-02  1.90144206E-01 -7.73557323E-02  1.52056545E-01
 -5.48661149E-01  8.23568050E-02 -1.27662299E-02  2.57299363E-02 -6.76742634E-03
 -7.52335940E-03 -1.01172691E-01  1.89796308E-03 -7.46270498E-04  1.62099452E-03
  1.68948087E-03  1.45241864E-03 -5.92645517E-04 -4.98004267E-05  2.46224170E-03
  2.07479440E-06 -1.74560430E-01  6.09698777E-01 -9.00205023E-02 -7.95056484E-02
  2.17847355E-02 -1.93974622E-01  6.46595474E-01 -3.37949067E-02  7.01335684E-02
 -5.69158965E-02 -1.14091922E-01  2.95400611E-01 -4.59834989E-02 -6.78096786E-02
  1.51240348E-02 -4.27206599E-03  1.03211619E-02 -5.81649530E-02  1.69062420E-02
 -2.04225464E-02  4.33526431E-02 -1.62855588E-01  2.61667645E-03 -7.92532191E-03
  4.17180570E-03  1.26856825E-01  1.25569807E-01 -1.12695976E-02  5.25409871E-02
 -4.52862178E-02  1.16447364E-01  1.05038392E-02 -3.27985282E-02 -2.03087760E-02
  2.20938868E-02  1.73818460E-02  2.24877196E-02  9.77591934E-03 -3.44998023E-02
 -3.39535688E-03  8.47120108E-03 -4.77757892E-03  9.58495445E-02 -3.42706257E-01
  6.89753337E-02  6.16536635E-02  4.13247245E-02 -1.13581765E-01  3.26021358E-01
  1.54736966E-02  1.24372858E-01  4.68558442E-02 -2.93475161E-02  8.52462665E-02
 -1.03730617E-01  2.09484848E-03 -5.62536894E-03  1.39376336E-02 -5.53235740E-02
 -7.69175336E-03  1.67225714E-02 -3.06429875E-03 -9.67910533E-02 -1.14310941E-01
 -2.23704047E-02  8.35578538E-02 -1.68994578E-01  4.73909038E-01  2.76070268E-02
 -2.85597804E-02 -2.89358838E-02  1.16576074E-01  1.21412676E-01  1.16821608E-01
  3.03058834E-02 -1.16895108E-01 -2.04776485E-02  1.35182223E-02 -3.87853671E-03
 -3.77191184E-02  1.41458053E-01 -1.38254058E-01 -8.05987869E-02  2.02005591E-02
  1.22711056E-01 -3.83732858E-01 -1.54707811E-01  5.53069927E-02  8.18828376E-02
  7.86446653E-02 -2.44162887E-01  1.91021668E-01  1.82295666E-02  5.30220324E-02
 -3.96658463E-02  1.68268752E-01  3.73927633E-02 -5.70361982E-02  4.49540069E-02
  1.18512953E-01  5.66959036E-02  3.95332214E-02 -1.46302110E-01 -1.29864623E-01
  3.90981232E-01 -6.89500040E-02  6.47710996E-02  6.63434670E-02  1.56807011E-01
  1.28509075E-01  1.46153895E-01 -4.29023265E-02  1.75453833E-01  6.21418716E-02
  5.78319353E-03  2.15091493E-02 -1.61077061E-02  6.40740405E-02 -8.65042354E-02
 -6.30696140E-02  2.66718160E-02  4.92677251E-02 -1.61266157E-01  1.30154559E-01
 -3.91926649E-02  1.33494986E-01 -1.34566904E-01  4.65540011E-01  3.03536980E-02
 -1.49236568E-01  1.16522484E-01  4.72548405E-02 -2.16941724E-01  1.03440552E-01
  4.03111283E-01 -1.55356730E-01  8.36610034E-02  3.04407087E-02 -2.85388406E-01
 -1.65303037E-01 -1.37167592E-02  4.57478641E-02  1.39895046E-02  2.62502541E-02
  9.69030255E-02 -5.85139182E-03  2.87420138E-02  7.71671899E-02  7.59392102E-02
 -3.43186954E-01 -5.92514218E-02 -1.69407898E-01  9.20126951E-02 -2.15607437E-02
  9.79191195E-02  1.16486490E-01 -6.34669415E-02  1.88498970E-01  3.31690705E-02
 -1.12918349E-01  2.03001753E-01 -1.09231856E-01  2.77857457E-01 -1.70002870E-02
  5.02027097E-02 -2.62294391E-01  1.11851464E-01 -3.15237043E-02  3.67917100E-02
 -1.70890006E-01 -2.76657628E-01 -1.49096139E-01  6.19304049E-02  1.06741539E-02
 -6.94712314E-02  2.36857061E-01 -2.66961822E-01 -4.20857007E-03  1.53613238E-02
  9.75484312E-02 -2.42596439E-02  1.69615235E-01 -1.01725463E-01  2.14975317E-02
  1.35559475E-01 -1.21863777E-02  6.39092915E-02 -9.64974749E-02  1.21790740E-01
 -3.57499771E-02 -6.33428964E-03  2.31376405E-02  1.27233734E-01 -3.27389921E-01
 -3.35211832E-01  3.95271918E-02 -1.42874490E-01  1.94215259E-01  2.75741547E-02
 -1.63705245E-01 -2.23378505E-02  7.36635254E-02 -7.02521939E-02  2.18741199E-02
 -8.87293100E-02  8.69976251E-03 -3.91372627E-02 -5.45842074E-02 -5.49171925E-02
 -3.73931512E-02 -2.18239369E-01  3.70507714E-01  5.15080779E-02  6.17831835E-02
 -2.68899836E-02  8.71486174E-02  3.11731962E-02  2.37075234E-01  4.84573597E-02
  3.17603114E-02  1.90205554E-01  1.27832362E-02  1.58514493E-02 -7.26279266E-02
 -7.86114369E-02  6.30608947E-04 -4.71550031E-02 -6.86254392E-03  3.98129331E-02
  4.09104885E-01  1.70956010E-01 -1.56398457E-01 -8.35436244E-03  4.12402618E-02
 -1.30906861E-01 -3.16434994E-01  4.36841655E-02  2.39461130E-02 -7.88008086E-02
  8.25444272E-02 -1.76751731E-01  3.81921162E-02  2.16644856E-02 -1.07748184E-01
 -1.52113939E-02  8.59818802E-02 -9.98423702E-02 -3.37011873E-01  3.37336496E-02
 -2.91876058E-02 -9.48762782E-02 -1.23708862E-02  4.28486417E-02 -1.72287519E-01
 -7.13856461E-02  1.44229503E-01  1.02374911E-01 -1.15975254E-01  1.40929696E-01
 -3.67143016E-02  1.80464379E-01  2.09019640E-01 -1.29398706E-02  5.98362296E-03
  3.23429944E-04 -3.15680555E-03  6.38564921E-02 -1.24548697E-02 -1.81077638E-01
 -3.03823497E-02  1.13500920E-01 -1.14910719E-01  1.00868860E-01  1.36439260E-01
  4.49041533E-02 -1.55236717E-01  3.08945505E-02  8.92802417E-02  3.00538748E-01
 -2.86864225E-02  1.39053749E-01  1.33776729E-01  1.31501490E-01  2.69809589E-01
 -1.44668534E-01  1.42689884E-01 -1.04783467E-01 -3.68764898E-02 -3.77630193E-04
  4.11026651E-03  3.80747488E-01 -1.10998993E-01  2.90645081E-02 -3.47783909E-01
  8.78075593E-02  5.83922279E-02 -2.12648136E-02  1.03463358E-01  1.04719863E-01
  1.21123261E-01  1.97470844E-01  1.78363707E-02 -8.56776230E-02 -8.35516659E-02
 -2.27817297E-02 -1.18707112E-01 -4.41828704E-03  1.33143336E-02  7.70340644E-03
  3.94987923E-02 -7.30098273E-02 -1.07855990E-02  3.02584590E-02  8.94133200E-02
  1.81453085E-01 -1.78757212E-01 -3.65864990E-02  1.87452467E-01  2.04851378E-01
 -2.00071258E-01  3.96108115E-02 -1.38160794E-03  8.15336536E-02 -1.96397416E-02
  8.17436263E-02  3.99279487E-04 -1.03312383E-03 -4.38175615E-02 -2.97755911E-01
  3.35244439E-01 -9.50760411E-02 -2.74707831E-01  3.73885834E-01  4.74181605E-02
 -2.52341449E-01 -2.42111759E-01 -1.70242266E-01 -4.72868674E-02  4.74892447E-03
 -2.17316741E-02  5.77654725E-02 -1.17839561E-01 -1.10887456E-01  5.08633728E-03
 -1.81375650E-02 -3.07775885E-02  8.50067305E-02  1.34208407E-01 -3.09050193E-02
  1.04512901E-01 -3.89799434E-02  2.43970555E-01  2.16342635E-01  7.54344583E-03
 -3.45938688E-02 -1.30283809E-01  8.49218681E-02  3.11223465E-01 -1.01274115E-01
  1.41057003E-01  6.96635042E-02 -1.04226144E-01 -5.22010945E-04  3.82316583E-03
 -2.88952285E-01 -1.65244063E-01 -2.22508213E-01  2.94440253E-01 -2.46310503E-01
 -1.56224867E-01  3.26886221E-02 -1.70862350E-01 -2.22726184E-01 -1.76634912E-02
  2.11332023E-01  3.17947434E-02 -1.51676078E-01 -2.33361038E-01 -2.04387169E-01
 -7.77736499E-02 -3.49309145E-03 -1.14118966E-03  1.17324170E-01  1.95420888E-01
 -6.61542391E-02  1.45034563E-02 -3.68277016E-02 -2.30371421E-01 -2.40639711E-01
  1.05617530E-01  1.87976041E-02 -9.99389693E-02 -1.84525658E-01  1.87863842E-01
 -7.69889695E-02  1.14224311E-01  1.28893078E-01 -3.88306731E-02  1.21958346E-01
  5.41964099E-04 -3.05836560E-03 -1.10983402E-01 -2.20051629E-01  9.33631346E-02
  4.52739166E-02 -2.40932735E-01  1.51506302E-01 -6.75560256E-02  3.63872081E-01
  2.88665543E-01  3.39486252E-01 -9.60458746E-02 -2.27891935E-04 -1.10810434E-03
 -6.29220633E-02  1.90315249E-01  5.95305675E-02  1.23989665E-02 -5.02351130E-02
  9.36897530E-02 -2.35868236E-01 -3.34563227E-01 -2.01056271E-03  7.48390114E-03
 -8.77432646E-02  1.26186504E-01  2.17403481E-01 -6.14580704E-03  3.24273918E-02
 -7.07492903E-02  1.88838583E-01  3.99227392E-01  1.03115272E-01 -1.61812719E-01
 -2.31604577E-02  2.22170766E-01  2.52024623E-02 -1.00023162E-01 -1.32785787E-01
  2.62355140E-01  2.80527751E-01  5.68172785E-02  9.85638169E-02  1.56226663E-01
 -1.15853330E-03  7.35750147E-03 -7.99925987E-02  1.44615513E-01  1.51224187E-01
 -3.51738462E-03  1.05618322E-02 -1.76223431E-02  9.66480373E-02 -8.65836138E-02
 -6.50928924E-03  2.60910356E-02  1.51725903E-01 -1.23516304E-01  1.51428998E-01
  1.04155724E-02 -1.86890861E-02 -2.55520246E-01  3.06899226E-02 -1.01151404E-01
 -6.95863143E-02  3.62810594E-01  5.13925881E-01 -3.25449281E-02  7.65203460E-02