NF3 HF/STO-3G                                                           
SP        RHF                                                         STO-3G              
Number of atoms                            I                4
Info1-9                                    I   N=           9
          12          12           0           0           0         110
           1           1           2
Full Title                                 C   N=           2
NF3 HF/STO-3G           
Route                                      C   N=           2
#p RHF/STO-3G           
Charge                                     I                0
Multiplicity                               I                1
Number of electrons                        I               34
Number of alpha electrons                  I               17
Number of beta electrons                   I               17
Number of basis functions                  I               20
Number of independent functions            I               20
Number of point charges in /Mol/           I                0
Number of translation vectors              I                0
Atomic numbers                             I   N=           4
           7           9           9           9
Nuclear charges                            R   N=           4
  7.00000000E+00  9.00000000E+00  9.00000000E+00  9.00000000E+00
Current cartesian coordinates              R   N=          12
 -4.10751993E-05  2.56544910E-05  9.13522077E-01  2.31625039E+00 -4.14876969E-01
 -2.36827662E-01 -1.51740293E+00 -1.79846341E+00 -2.36840801E-01 -7.98815516E-01
  2.21332042E+00 -2.36848709E-01
Number of symbols in /Mol/                 I                0
Force Field                                I                0
Atom Types                                 C   N=           4
                                                
Int Atom Types                             I   N=           4
           0           0           0           0
MM charges                                 R   N=           4
  0.00000000E+00  0.00000000E+00  0.00000000E+00  0.00000000E+00
Integer atomic weights                     I   N=           4
          14          19          19          19
Real atomic weights                        R   N=           4
  1.40030740E+01  1.89984032E+01  1.89984032E+01  1.89984032E+01
Atom fragment info                         I   N=           4
           0           0           0           0
Atom residue num                           I   N=           4
           0           0           0           0
Nuclear spins                              I   N=           4
           2           1           1           1
Nuclear ZEff                               R   N=           4
 -4.55000000E+00 -6.75000000E+00 -6.75000000E+00 -6.75000000E+00
Nuclear ZNuc                               R   N=           4
  7.00000000E+00  9.00000000E+00  9.00000000E+00  9.00000000E+00
Nuclear QMom                               R   N=           4
  2.04400000E+00  0.00000000E+00  0.00000000E+00  0.00000000E+00
Nuclear GFac                               R   N=           4
  4.03761000E-01  2.62886700E+00  2.62886700E+00  2.62886700E+00
MicOpt                                     I   N=           4
          -1          -1          -1          -1
Number of residues                         I                0
Number of secondary structures             I                0
SymInf integers                            I   N=          26
           1           1           1           1           1           0
           0           0           0           0           0           0
           0           0           0           0           0           0
           0           0           0           0           0           0
           0           0
RotTr to input orientation                 R   N=          12
 -3.71558686E-02  5.64678260E-01  8.24474320E-01 -8.28751472E-01  4.43595889E-01
 -3.41165187E-01 -5.58381983E-01 -6.95960595E-01  4.51495748E-01  2.43626716E-01
  3.03284202E-01 -1.96671912E-01
Number of contracted shells                I                8
Number of primitive shells                 I               24
Pure/Cartesian d shells                    I                0
Pure/Cartesian f shells                    I                0
Highest angular momentum                   I                1
Largest degree of contraction              I                3
Shell types                                I   N=           8
           0          -1           0          -1           0          -1
           0          -1
Number of primitives per shell             I   N=           8
           3           3           3           3           3           3
           3           3
Shell to atom map                          I   N=           8
           1           1           2           2           3           3
           4           4
Primitive exponents                        R   N=          24
  9.91061690E+01  1.80523124E+01  4.88566024E+00  3.78045588E+00  8.78496645E-01
  2.85714374E-01  1.66679134E+02  3.03608123E+01  8.21682067E+00  6.46480325E+00
  1.50228124E+00  4.88588486E-01  1.66679134E+02  3.03608123E+01  8.21682067E+00
  6.46480325E+00  1.50228124E+00  4.88588486E-01  1.66679134E+02  3.03608123E+01
  8.21682067E+00  6.46480325E+00  1.50228124E+00  4.88588486E-01
Contraction coefficients                   R   N=          24
  1.54328967E-01  5.35328142E-01  4.44634542E-01 -9.99672292E-02  3.99512826E-01
  7.00115469E-01  1.54328967E-01  5.35328142E-01  4.44634542E-01 -9.99672292E-02
  3.99512826E-01  7.00115469E-01  1.54328967E-01  5.35328142E-01  4.44634542E-01
 -9.99672292E-02  3.99512826E-01  7.00115469E-01  1.54328967E-01  5.35328142E-01
  4.44634542E-01 -9.99672292E-02  3.99512826E-01  7.00115469E-01
P(S=P) Contraction coefficients            R   N=          24
  0.00000000E+00  0.00000000E+00  0.00000000E+00  1.55916275E-01  6.07683719E-01
  3.91957393E-01  0.00000000E+00  0.00000000E+00  0.00000000E+00  1.55916275E-01
  6.07683719E-01  3.91957393E-01  0.00000000E+00  0.00000000E+00  0.00000000E+00
  1.55916275E-01  6.07683719E-01  3.91957393E-01  0.00000000E+00  0.00000000E+00
  0.00000000E+00  1.55916275E-01  6.07683719E-01  3.91957393E-01
Coordinates of each shell                  R   N=          24
 -4.10751993E-05  2.56544910E-05  9.13522077E-01 -4.10751993E-05  2.56544910E-05
  9.13522077E-01  2.31625039E+00 -4.14876969E-01 -2.36827662E-01  2.31625039E+00
 -4.14876969E-01 -2.36827662E-01 -1.51740293E+00 -1.79846341E+00 -2.36840801E-01
 -1.51740293E+00 -1.79846341E+00 -2.36840801E-01 -7.98815516E-01  2.21332042E+00
 -2.36848709E-01 -7.98815516E-01  2.21332042E+00 -2.36848709E-01
Num ILSW                                   I              100
ILSW                                       I   N=         100
           0           0           0           0           2           0
           0           0           0           0           0          -1
           5           0           0           0           0           0
           0           0           0           0           0           0
           1           0           0           0           0           0
           0           0      100000           0          -1           0
           0           0           0           0           0           0
           0           0           0           1           0           0
           0 -2000000000           1           0           0           0
           0           0           4          52           0           0
           0           0           0           0           0           0
           0           0           0           4           0           1
           0           0           0           0           0           0
           0           0           0           0           0           0
           0           0           0           0           0           0
           0           0           0           0           0           0
           0           0           0           0
Num RLSW                                   I               52
RLSW                                       R   N=          52
  1.00000000E+00  1.00000000E+00  1.00000000E+00  1.00000000E+00  1.00000000E+00
  0.00000000E+00  0.00000000E+00  1.00000000E+00  0.00000000E+00  0.00000000E+00
  0.00000000E+00  0.00000000E+00  1.00000000E+00  0.00000000E+00  0.00000000E+00
  0.00000000E+00  0.00000000E+00  1.00000000E+00  0.00000000E+00  0.00000000E+00
  0.00000000E+00  0.00000000E+00  1.00000000E+00  0.00000000E+00  0.00000000E+00
  0.00000000E+00  0.00000000E+00  1.00000000E+00  0.00000000E+00  0.00000000E+00
  0.00000000E+00  0.00000000E+00  1.00000000E+00  0.00000000E+00  0.00000000E+00
  0.00000000E+00  0.00000000E+00  0.00000000E+00  1.00000000E+00  1.00000000E+00
  0.00000000E+00  1.00000000E+00  0.00000000E+00  0.00000000E+00  0.00000000E+00
  0.00000000E+00  0.00000000E+00  0.00000000E+00  0.00000000E+00  0.00000000E+00
  0.00000000E+00  0.00000000E+00
MxBond                                     I                3
NBond                                      I   N=           4
           3           1           1           1
IBond                                      I   N=          12
           2           3           4           1           0           0
           1           0           0           1           0           0
RBond                                      R   N=          12
  1.00000000E+00  1.00000000E+00  1.00000000E+00  1.00000000E+00  0.00000000E+00
  0.00000000E+00  1.00000000E+00  0.00000000E+00  0.00000000E+00  1.00000000E+00
  0.00000000E+00  0.00000000E+00
Virial Ratio                               R      2.013100039172461E+00
SCF Energy                                 R     -3.477546909074392E+02
Total Energy                               R     -3.477546909074392E+02
RMS Density                                R      5.270702815316128E-09
Job Status                                 I                1
Nuclear derivative order                   I                0
External E-field                           R   N=          35
  0.00000000E+00  0.00000000E+00  0.00000000E+00  0.00000000E+00  0.00000000E+00
  0.00000000E+00  0.00000000E+00  0.00000000E+00  0.00000000E+00  0.00000000E+00
  0.00000000E+00  0.00000000E+00  0.00000000E+00  0.00000000E+00  0.00000000E+00
  0.00000000E+00  0.00000000E+00  0.00000000E+00  0.00000000E+00  0.00000000E+00
  0.00000000E+00  0.00000000E+00  0.00000000E+00  0.00000000E+00  0.00000000E+00
  0.00000000E+00  0.00000000E+00  0.00000000E+00  0.00000000E+00  0.00000000E+00
  0.00000000E+00  0.00000000E+00  0.00000000E+00  0.00000000E+00  0.00000000E+00
IOpCl                                      I                0
IROHF                                      I                0
Alpha Orbital Energies                     R   N=          20
 -2.60382457E+01 -2.60381558E+01 -2.60381449E+01 -1.55886484E+01 -1.66215806E+00
 -1.52761594E+00 -1.52760069E+00 -9.82585088E-01 -6.79034671E-01 -6.79034259E-01
 -6.76028407E-01 -5.57983226E-01 -5.57976670E-01 -5.23429425E-01 -4.97533868E-01
 -4.97524279E-01 -3.92793362E-01  4.48755138E-01  4.48788879E-01  4.60046485E-01
Alpha MO coefficients                      R   N=         400
  7.72002786E-04 -5.36495348E-03  2.27224927E-04 -1.57514844E-04  2.70055390E-03
  5.15100570E-01  1.13001644E-02 -1.24615637E-03  2.26460133E-04  5.17594188E-04
  5.78599887E-01  1.26443073E-02  8.85590170E-04  1.06152193E-03  5.76010942E-04
  6.24159193E-01  1.36086947E-02  4.93307164E-04 -1.37999987E-03  6.17923258E-04
 -3.36463753E-05  2.33738194E-04 -5.41852476E-05 -3.54584776E-03 -1.17641830E-04
 -1.55829027E-01 -3.31552440E-03  3.10707652E-04  4.30415985E-05 -1.45085814E-04
 -6.53172078E-01 -1.38421402E-02 -8.24455179E-04 -8.80546975E-04 -6.02050722E-04
  7.34106531E-01  1.55205837E-02  4.82104463E-04 -1.23322710E-03  6.72598388E-04
  5.00034694E-05 -3.47353522E-04 -3.54165130E-03  4.41503260E-05  1.74822538E-04
  8.36760594E-01  1.77361512E-02 -1.51896379E-03  2.88466627E-04  7.71542242E-04
 -4.77878554E-01 -1.00888329E-02 -4.89857839E-04 -6.98382740E-04 -4.36176481E-04
 -2.47572954E-01 -5.21430016E-03 -5.93520729E-05  4.35698476E-04 -2.24601976E-04
  9.94234854E-01  2.45911736E-02 -2.16557428E-07  1.32048538E-07 -3.93580234E-03
  5.12787417E-04 -3.70183682E-03  2.32548588E-03 -4.16555643E-04 -8.98754165E-04
  5.12801290E-04 -3.70212315E-03 -1.52347394E-03 -1.80575856E-03 -8.98827177E-04
  5.12809397E-04 -3.70229093E-03 -8.02019991E-04  2.22231761E-03 -8.98870006E-04
 -1.08694659E-01  3.51540370E-01 -1.54019727E-05  9.44293676E-06 -1.01144078E-01
 -1.24787483E-01  4.57031741E-01 -6.31404901E-02  1.13105580E-02  1.95439516E-02
 -1.24813361E-01  4.57127282E-01  4.13705004E-02  4.90378848E-02  1.95503893E-02
 -1.24828537E-01  4.57183315E-01  2.17809880E-02 -6.03551812E-02  1.95541722E-02
  4.26997102E-06 -1.65343298E-05 -1.61619116E-03  1.37009493E-01  3.43336249E-06
  3.91785530E-02 -1.50071294E-01  1.14262414E-02  1.30040096E-02 -4.26090313E-03
  1.57731722E-01 -6.04184105E-01 -3.07836537E-02 -2.11926453E-02 -1.71568505E-02
 -1.96883749E-01  7.54155192E-01  1.99334313E-02 -4.06418034E-02  2.14173917E-02
 -6.76923887E-06  2.62060509E-05  1.37002086E-01  1.61611026E-03 -5.45581519E-06
 -2.04752109E-01  7.84295581E-01 -4.55567910E-02  1.10400048E-02  2.22665840E-02
  1.36277141E-01 -5.22005910E-01 -1.13564737E-02 -3.11615426E-02 -1.48222217E-02
  6.84329500E-02 -2.62130934E-01  8.09498074E-03  1.95456708E-02 -7.44378185E-03
 -1.98598395E-01  7.75839925E-01 -1.71511972E-06  1.06193514E-06 -3.06883859E-02
  8.60039171E-02 -3.89594184E-01 -1.94762562E-01  3.48864223E-02  9.65513659E-02
  8.60099992E-02 -3.89624068E-01  1.27601183E-01  1.51241624E-01  9.65635109E-02
  8.60135718E-02 -3.89641622E-01  6.71770588E-02 -1.86137587E-01  9.65706695E-02
  1.03147862E-05 -4.23759170E-05  4.86661466E-01 -1.62921300E-02 -1.58541410E-04
  5.00208359E-02 -2.45492163E-01 -3.00440979E-01  1.17130096E-01  2.78088925E-01
 -3.12738164E-02  1.53487234E-01  1.33661663E-01 -3.71444186E-01 -1.74098385E-01
 -1.87324783E-02  9.19368014E-02  3.39855215E-01  2.48527476E-01 -1.04342659E-01
 -6.01239004E-06  2.47310675E-05  1.62915252E-02  4.86673797E-01  9.16517853E-05
 -7.24444022E-03  3.55542560E-02  1.21024788E-01  4.15621986E-01 -4.02212680E-02
 -3.97003596E-02  1.94843488E-01 -3.67686073E-01 -1.83053253E-02 -2.20778251E-01
  4.69363910E-02 -2.30358331E-01  2.52457132E-01 -2.24402615E-01  2.61202758E-01
 -4.71475185E-02  2.04075178E-01  1.50437536E-04 -9.38390272E-05  5.09026116E-01
 -1.25170511E-02  6.11409813E-02  2.67217414E-01 -4.79299812E-02  3.40263846E-01
 -1.25382288E-02  6.12455469E-02 -1.75044589E-01 -2.07740792E-01  3.40200324E-01
 -1.25509264E-02  6.13082405E-02 -9.21529142E-02  2.55658076E-01  3.40161494E-01
  2.59591328E-06 -1.21597952E-05 -1.28012255E-03  9.71809675E-02 -1.82650808E-05
 -1.28651288E-03  6.91564399E-03 -1.06192216E-01 -3.81591839E-01 -1.27709261E-01
 -5.13774269E-03  2.76180328E-02  2.96946728E-01 -5.59621918E-02 -5.09924302E-01
  6.42476516E-03 -3.45365339E-02 -1.86707550E-01  1.30289987E-01  6.37592517E-01
 -4.08458630E-06  1.91308796E-05  9.72227667E-02  1.28040768E-03  2.88472973E-05
  6.67840377E-03 -3.58986256E-02  1.76758282E-01 -1.08849700E-01  6.62582768E-01
 -4.45439925E-03  2.39439824E-02 -1.48874504E-01  2.94140195E-01 -4.41853401E-01
 -2.22480917E-03  1.19591751E-02 -3.35132067E-01 -1.89337396E-01 -2.20664419E-01
 -5.46792320E-12  2.76854568E-11  1.23694342E-05  1.96460670E-05  7.28710279E-12
  8.06783645E-07 -4.05372695E-06  1.02739002E-01  5.73700935E-01 -1.62051883E-05
 -2.12206564E-06  1.06677988E-05  4.45409828E-01 -3.75869796E-01  4.30344508E-05
  1.31528396E-06 -6.61408026E-06 -5.48179809E-01 -1.97879339E-01 -2.68293923E-05
 -2.95812584E-06  1.52522111E-05  2.80525435E-03 -2.31139886E-01  1.05535861E-05
  3.30058708E-03 -1.73905858E-02 -8.60677163E-03  5.40826555E-01 -3.69168064E-02
  1.32616105E-02 -6.98760311E-02 -1.14707411E-03  5.46812007E-01 -1.48278230E-01
 -1.65610080E-02  8.72617595E-02 -1.01240142E-02  5.50242037E-01  1.85129902E-01
  4.68490568E-06 -2.41492599E-05 -2.31176822E-01 -2.80558974E-03 -1.67612781E-05
 -1.72203886E-02  9.07340194E-02  5.51153399E-01  4.64949354E-03  1.92498802E-01
  1.14675730E-02 -6.04237521E-02  5.45097790E-01  1.20955127E-02 -1.28145234E-01
  5.75094594E-03 -3.03026575E-02  5.41624981E-01  3.13291187E-03 -6.42506486E-02
 -8.09309584E-02  3.74878518E-01 -2.37765204E-05  1.46885390E-05  6.38692789E-01
 -2.03520597E-03  1.52324746E-02  3.24649181E-02 -5.82477906E-03 -4.42053355E-01
 -2.03392547E-03  1.52260903E-02 -2.12175125E-02 -2.51877920E-02 -4.42065581E-01
 -2.03317199E-03  1.52223300E-02 -1.11549512E-02  3.09556969E-02 -4.42072794E-01
 -2.44589913E-04  1.21809119E-03  9.54783871E-01  1.10463699E-02 -1.14515426E-03
  5.03973377E-02 -2.90729471E-01  5.05520580E-01 -1.22278861E-01 -3.38930331E-01
 -3.34174750E-02  1.92783483E-01  1.25568145E-01  3.44137861E-01  2.25145257E-01
 -1.67618385E-02  9.67000306E-02 -8.92994966E-02 -2.15590936E-01  1.13052474E-01
  1.54021880E-04 -7.67038195E-04 -1.10448788E-02  9.54806326E-01  7.20994055E-04
 -9.66248845E-03  5.57397454E-02 -1.26849803E-01 -1.43316228E-01  6.48737517E-02
 -3.88229550E-02  2.23964465E-01  3.40995504E-01  2.35491209E-01  2.61121796E-01
  4.83481428E-02 -2.78919564E-01 -2.20413621E-01  4.49659192E-01 -3.25534105E-01
 -1.44501837E-01  7.24869752E-01 -1.65270486E-03  1.01411646E-03 -6.78011561E-01
  4.31307786E-02 -2.47947331E-01  5.11188722E-01 -9.16895707E-02 -1.45480871E-01
  4.32460508E-02 -2.48616849E-01 -3.35396850E-01 -3.98048515E-01 -1.46239942E-01
  4.33133995E-02 -2.49008029E-01 -1.76732595E-01  4.90315094E-01 -1.46683404E-01
Orthonormal basis                          R   N=         400
  1.82192120E-01  4.50976833E-01 -3.17827623E-05  1.93859157E-05 -2.37964991E-01
  9.35255370E-02  2.24384779E-01 -1.95030957E-01  3.49371278E-02  5.26818091E-02
  9.35410462E-02  2.24420025E-01  1.27775262E-01  1.51458984E-01  5.26964398E-02
  9.35500815E-02  2.24440552E-01  6.72683062E-02 -1.86403747E-01  5.27049772E-02
 -9.22309014E-06 -1.86164653E-05 -6.98620490E-03  5.29891110E-01  7.49600538E-06
 -4.10674072E-02 -7.13653704E-02  5.81249582E-02  1.19159643E-01 -2.89412222E-02
 -1.63958232E-01 -2.84917903E-01 -1.58213659E-01 -5.56071648E-02 -1.15556259E-01
  2.05007340E-01  3.56249057E-01  1.01301572E-01 -1.55541802E-01  1.44495365E-01
  1.46953524E-05  2.96336369E-05  5.29889755E-01  6.98620358E-03 -1.19880784E-05
  2.13038277E-01  3.70196484E-01 -1.80511119E-01  5.73113426E-02  1.50132749E-01
 -1.42065831E-01 -2.46865578E-01 -5.70402610E-03 -1.59008945E-01 -1.00126418E-01
 -7.09434470E-02 -1.23276693E-01  9.42545515E-02  1.00485233E-01 -5.00029857E-02
  4.00463637E-01  3.20642040E-01 -4.01084795E-07  2.64689094E-07  3.96703674E-01
 -2.21318524E-01 -1.82485604E-01 -4.10383046E-02  7.35071073E-03  2.34197463E-01
 -2.21327412E-01 -1.82492525E-01  2.68827826E-02  3.18624475E-02  2.34216307E-01
 -2.21332703E-01 -1.82496649E-01  1.41515113E-02 -3.92106308E-02  2.34227365E-01
  8.92231405E-02  8.44938165E-02 -1.10588222E-04  6.79514074E-05  4.10683173E-01
  2.76172020E-01  1.89711844E-01  3.05157586E-01 -5.46272238E-02  1.42264723E-01
  2.75940108E-01  1.89553193E-01 -1.99879997E-01 -2.36773148E-01  1.42395634E-01
  2.75804406E-01  1.89460360E-01 -1.05211448E-01  2.91359613E-01  1.42472226E-01
 -4.20089971E-05 -3.98225108E-05 -2.64948473E-01 -2.70211737E-03 -1.64479790E-04
  4.63183252E-01  3.09927594E-01  3.21391241E-01 -9.49896036E-02 -2.38485151E-01
 -3.07844056E-01 -2.05986948E-01  2.83261092E-02  2.65855268E-01  1.58320787E-01
 -1.55652572E-01 -1.04151645E-01 -1.37526470E-01 -1.68701810E-01  7.99960986E-02
  2.63758995E-05  2.50113374E-05  2.70194771E-03 -2.64941605E-01  1.03435992E-04
 -8.78025971E-02 -5.87497714E-02 -9.63775769E-02 -1.80030149E-01  4.52604064E-02
 -3.57221247E-01 -2.39021869E-01  2.64267055E-01  1.13168174E-01  1.83928133E-01
  4.45220707E-01  2.97904190E-01 -1.70054169E-01  2.79102165E-01 -2.29082667E-01
  4.56461983E-07  8.16665198E-07  1.11122904E-03 -3.94240426E-02  1.30850646E-06
 -2.63770639E-03 -7.98398628E-04  1.21412277E-01  5.51738756E-01  1.14849503E-01
 -9.64551904E-03 -2.91957950E-03 -3.45987998E-01  1.85561707E-01  4.19915604E-01
  1.22840501E-02  3.71821957E-03  2.04813867E-01 -3.61254592E-02 -5.34730591E-01
  7.41939771E-07  1.25227144E-06  3.94262626E-02  1.11117280E-03  2.09773717E-06
 -1.26607423E-02 -3.83199533E-03  8.42765518E-02 -1.34575514E-01  5.51235535E-01
  8.61556153E-03  2.60765512E-03 -2.81865320E-01  3.32781366E-01 -3.75052092E-01
  4.04643684E-03  1.22472243E-03 -5.03534226E-01 -2.17967874E-01 -1.76130786E-01
  6.84727273E-01  1.70974163E-02  6.32607978E-06 -3.89946511E-06  6.73566661E-02
  3.49226437E-03  2.04951140E-03  8.80050883E-02 -1.57519579E-02 -4.15273263E-01
  3.49647696E-03  2.05035416E-03 -5.76764578E-02 -6.83133900E-02 -4.15269753E-01
  3.49895328E-03  2.05085025E-03 -3.03692437E-02  8.40902685E-02 -4.15267902E-01
 -5.05797359E-10  2.60560466E-11 -1.21429293E-05 -2.06386509E-05  6.54347687E-11
 -1.54647467E-06  8.33884795E-07  1.02891601E-01  5.73893750E-01  7.33544889E-05
  4.38939157E-06 -2.36768404E-06  4.45590590E-01 -3.75595256E-01 -2.08495596E-04
 -2.84287312E-06  1.53380300E-06 -5.48083688E-01 -1.97621195E-01  1.35141142E-04
  3.29624389E-05 -2.57591375E-06 -4.85060161E-02  2.06909193E-03 -6.43837083E-06
 -1.15476552E-02  5.04633733E-03  5.42586892E-01 -3.17944226E-02  3.85347137E-01
  7.12621443E-03 -3.11524834E-03  5.05343608E-01  9.47820316E-03 -2.37860377E-01
  4.41757415E-03 -1.93154469E-03  4.88607730E-01 -4.32241269E-02 -1.47476813E-01
 -1.83727735E-05  1.43791886E-06 -2.06910092E-03 -4.85065020E-02  3.60119473E-06
  1.56389605E-03 -6.83387850E-04  1.19843346E-02  4.81476974E-01 -5.21951323E-02
  9.21644111E-03 -4.02880681E-03  5.29018850E-02  5.19060059E-01 -3.07657911E-01
 -1.07781751E-02  4.71244721E-03  6.57357233E-04  5.35952486E-01  3.59847376E-01
 -2.93037404E-01  1.70042510E-01  2.05658491E-05 -1.25862174E-05  6.22930358E-01
  2.62931706E-01 -1.55952370E-01 -3.08534503E-01  5.52698137E-02 -1.91112163E-01
  2.63016235E-01 -1.56002955E-01  2.02162069E-01  2.39633852E-01 -1.91097403E-01
  2.63065750E-01 -1.56032587E-01  1.06437510E-01 -2.94943534E-01 -1.91088809E-01
  1.49573103E-05 -1.07740062E-05  3.42267736E-03 -3.21219802E-01 -4.24708520E-05
 -1.11899260E-01  7.24483416E-02  9.35044790E-02  1.54765922E-01 -5.02596486E-02
 -4.53682095E-01  2.93732961E-01 -2.55038350E-01 -1.28257894E-01 -2.03842845E-01
  5.65535215E-01 -3.66151307E-01  1.64325966E-01 -2.88526076E-01  2.54151619E-01
 -2.37288141E-05  1.70922409E-05 -3.21237160E-01 -3.42292059E-03  6.75586471E-05
  5.88463267E-01 -3.81000119E-01 -3.29484350E-01  9.16316566E-02  2.64382483E-01
 -3.91088227E-01  2.53209681E-01 -4.63947542E-02 -2.56868797E-01 -1.75768236E-01
 -1.97301845E-01  1.27742851E-01  1.13912830E-01  1.62446004E-01 -8.86924449E-02
  4.50352999E-01 -3.74321159E-01 -3.51345210E-06  2.12792863E-06 -3.28501066E-01
  3.60781840E-01 -2.80124804E-01 -1.05687627E-01  1.89307996E-02  2.03156908E-01
  3.60779971E-01 -2.80123308E-01  6.92297018E-02  8.20546915E-02  2.03168588E-01
  3.60778940E-01 -2.80122479E-01  3.64427239E-02 -1.00976080E-01  2.03175499E-01
 -3.97867673E-05  7.98406179E-05  8.78788493E-01  1.03466693E-02 -3.18723548E-05
  2.78459847E-01 -6.24699864E-01  3.64042316E-01 -9.32071919E-02 -2.58337372E-01
 -1.85328892E-01  4.15771686E-01  7.59933506E-02  2.62206562E-01  1.71956614E-01
 -9.30730680E-02  2.08803402E-01 -8.78215679E-02 -1.64852554E-01  8.63635127E-02
  2.50438192E-05 -5.02415376E-05 -1.03470008E-02  8.78813272E-01  1.99904243E-05
 -5.32737194E-02  1.19522000E-01 -9.59867255E-02 -1.29162115E-01  4.94248203E-02
 -2.14507340E-01  4.81260147E-01  2.59480323E-01  1.58827631E-01  1.99032768E-01
  2.67744579E-01 -6.00703501E-01 -1.67641269E-01  3.22606749E-01 -2.48446667E-01
 -3.32185066E-01  9.75247135E-01 -9.58420333E-05  5.86709953E-05 -5.04755763E-01
  1.47137188E-01 -4.51866539E-01  3.60373363E-01 -6.45565284E-02 -1.18605803E-01
  1.47168799E-01 -4.51967258E-01 -2.36115420E-01 -2.79882587E-01 -1.18647930E-01
  1.47187282E-01 -4.52026147E-01 -1.24309744E-01  3.44470693E-01 -1.18672555E-01
Total SCF Density                          R   N=         210
  2.09706421E+00 -4.15613614E-01  1.81664498E+00 -1.74630165E-06  1.18671913E-05
  6.37588199E-01  1.05405370E-06 -7.21532130E-06  2.62873277E-07  6.37565877E-01
 -1.25023738E-01  5.67669895E-01 -1.33610800E-05  8.28979586E-06  1.35646166E+00
 -3.61016393E-03  3.29088040E-02 -4.17305862E-03  7.47320131E-04  7.71533667E-03
  2.11855178E+00  3.98032368E-02 -2.47074869E-01 -7.15613500E-02  1.28191563E-02
  1.33285729E-02 -5.02059886E-01  2.14828388E+00  6.52513652E-02 -2.13056231E-01
 -5.21142589E-01  1.11222916E-01  3.38325778E-01 -5.71480989E-02  2.94989832E-01
  1.15685029E+00 -1.16880008E-02  3.81640562E-02  1.11224482E-01  7.98734562E-02
 -6.06023953E-02  1.02365785E-02 -5.28396795E-02  1.44759136E-01  1.93907385E+00
 -4.91655797E-03 -2.90525951E-02  3.15545539E-01 -5.65208526E-02 -2.28195721E-01
  2.81359606E-02 -1.45492556E-01  4.08283282E-01 -7.31334374E-02  1.78821171E+00
 -3.60970959E-03  3.29096397E-02  2.73548183E-03  3.24158291E-03  7.71626775E-03
 -1.85732846E-04 -1.42644640E-03 -1.26694074E-02 -9.54312444E-03 -5.58438719E-03
  2.11855149E+00  3.98035774E-02 -2.47088100E-01  4.68762592E-02  5.55646009E-02
  1.33298684E-02 -1.42651009E-03  2.05850733E-02  5.36228215E-02  4.53663835E-02
  2.90231108E-02 -5.02058997E-01  2.14828554E+00 -4.27492084E-02  1.39577649E-01
 -1.66677601E-01 -3.15851799E-01 -2.21638793E-01  1.58442614E-02 -7.02374176E-02
  2.57864243E-01  7.21677906E-02 -3.36273905E-02  3.74395796E-02 -1.93259455E-01
  1.61817459E+00 -5.06692149E-02  1.65440197E-01 -3.15855574E-01 -2.74563225E-01
 -2.62703326E-01  7.47342280E-04  6.65605734E-04  8.59008085E-02  6.73757690E-02
  7.40712395E-02  4.43761236E-02 -2.29065264E-01 -4.11076820E-01  1.47775818E+00
 -4.91703055E-03 -2.90573190E-02 -2.06721998E-01 -2.45018839E-01 -2.28208812E-01
 -5.58461334E-03  2.90240192E-02 -2.14406790E-02  7.84696187E-02  6.85054069E-02
  2.81382265E-02 -1.45505816E-01 -2.67472933E-01 -3.17029465E-01  1.78819771E+00
 -3.60944413E-03  3.29101377E-02  1.44055583E-03 -3.99073426E-03  7.71682365E-03
 -1.85740683E-04 -1.42647559E-03 -8.56945240E-03  1.33476430E-02 -5.58470002E-03
 -1.85760866E-04 -1.42656071E-03 -1.93051156E-03  1.57448548E-02 -5.58543451E-03
  2.11855133E+00  3.98037856E-02 -2.47095911E-01  2.46761043E-02 -6.83781872E-02
  1.33305921E-02 -1.42657658E-03  2.05858482E-02  3.45428610E-02 -6.11599889E-02
  2.90248510E-02 -1.42659801E-03  2.05870710E-02  1.24805831E-02 -6.91277111E-02
  2.90285873E-02 -5.02058474E-01  2.14828651E+00 -2.25054721E-02  7.34795602E-02
  2.59612570E-02  2.04629237E-01 -1.16678280E-01  1.46004347E-02 -6.61046080E-02
  1.83467383E-01 -1.15136789E-01 -5.72503176E-02 -7.27574816E-03  3.56997257E-02
  4.65456664E-02  3.61071481E-02  8.09676029E-02  1.97099555E-02 -1.01741488E-01
  1.86887671E+00  6.23592059E-02 -2.03604670E-01  2.04631446E-01 -4.67185229E-01
  3.23300189E-01 -6.20037650E-03  2.37547208E-02 -1.28864192E-01  1.41774820E-01
 -5.77948490E-02 -1.40960654E-02  6.04984738E-02  4.98256874E-02  2.78700236E-01
 -7.92158309E-03 -5.46135411E-02  2.81911547E-01  2.66318362E-01  1.22706103E+00
 -4.91730261E-03 -2.90601315E-02 -1.08827353E-01  3.01541825E-01 -2.28216608E-01
 -5.58505476E-03  2.90262735E-02 -4.73503316E-02 -6.61476651E-02  6.85090704E-02
 -5.58556310E-03  2.90291015E-02  7.86846977E-02 -2.06667056E-02  6.85150625E-02
  2.81395541E-02 -1.45513583E-01 -1.40808239E-01  3.90161281E-01  1.78818953E+00
Mulliken Charges                           R   N=           4
  1.64851630E-01 -5.49510008E-02 -5.49504874E-02 -5.49501419E-02
ONIOM Charges                              I   N=          16
           0           0           0           0           0           0
           0           0           0           0           0           0
           0           0           0           0
ONIOM Multiplicities                       I   N=          16
           1           0           0           0           0           0
           0           0           0           0           0           0
           0           0           0           0
Atom Layers                                I   N=           4
           1           1           1           1
Atom Modifiers                             I   N=           4
           0           0           0           0
Force Field                                I                0
Atom Modified Types                        C   N=           4
                                                
Int Atom Modified Types                    I   N=           4
           0           0           0           0
Link Atoms                                 I   N=           4
           0           0           0           0
Atom Modified MM Charges                   R   N=           4
  0.00000000E+00  0.00000000E+00  0.00000000E+00  0.00000000E+00
Link Distances                             R   N=          16
  0.00000000E+00  0.00000000E+00  0.00000000E+00  0.00000000E+00  0.00000000E+00
  0.00000000E+00  0.00000000E+00  0.00000000E+00  0.00000000E+00  0.00000000E+00
  0.00000000E+00  0.00000000E+00  0.00000000E+00  0.00000000E+00  0.00000000E+00
  0.00000000E+00
Cartesian Gradient                         R   N=          12
  0.00000000E+00  0.00000000E+00  0.00000000E+00  0.00000000E+00  0.00000000E+00
  0.00000000E+00  0.00000000E+00  0.00000000E+00  0.00000000E+00  0.00000000E+00
  0.00000000E+00  0.00000000E+00
Nonadiabatic coupling                      R   N=          12
  0.00000000E+00  0.00000000E+00  0.00000000E+00  0.00000000E+00  0.00000000E+00
  0.00000000E+00  0.00000000E+00  0.00000000E+00  0.00000000E+00  0.00000000E+00
  0.00000000E+00  0.00000000E+00